 Gaussian 16, Revision B.01,

 -------------------
 #p B3LYP/6-31g* opt
 -------------------

 ----
 Agua
 ----
 Symbolic Z-matrix:
 Charge =  0 Multiplicity = 1

 SCF Done:  E(RB3LYP) =  -76.3990255167     A.U. after    9 cycles
 SCF Done:  E(RB3LYP) =  -76.4086683627     A.U. after    9 cycles
 SCF Done:  E(RB3LYP) =  -76.4089518545     A.U. after    9 cycles
 SCF Done:  E(RB3LYP) =  -76.4089539738     A.U. after    6 cycles
 Optimization completed.
    -- Stationary point found.
 Normal termination of Gaussian 16 at Fri Jun  7 15:43:06 2024.
 Gaussian 16:  ES64L-G16RevB.01 20-Dec-2017

 -------------------------------------------------------------
 #p B3LYP/6-31g* pop=full iop(3/33=1) guess=read geom=allcheck
 -------------------------------------------------------------

 Structure from the checkpoint file:  "agua.chk"
 ----
 Agua
 ----
 Charge =  0 Multiplicity = 1

                         Standard orientation:
 ---------------------------------------------------------------------
 Center     Atomic      Atomic             Coordinates (Angstroms)
 Number     Number       Type             X           Y           Z
 ---------------------------------------------------------------------
      1          8           0       -0.000000    0.000000    0.119745
      2          1           0       -0.000000    0.761495   -0.478980
      3          1           0       -0.000000   -0.761495   -0.478980
 ---------------------------------------------------------------------

 SCF Done:  E(RB3LYP) =  -76.4089539738     A.U. after    1 cycles

 The electronic state is 1-A1.
 Alpha  occ. eigenvalues --  -19.13816  -0.99790  -0.51714  -0.37223  -0.29119
 Alpha virt. eigenvalues --    0.06261   0.14813   0.77246   0.86098   0.89078
 Alpha virt. eigenvalues --    0.89510   1.06579   1.19346   1.72908   1.74637
 Alpha virt. eigenvalues --    1.77980   2.28062   2.57717   3.55192

 Mulliken charges:
               1
     1  O   -0.774323
     2  H    0.387162
     3  H    0.387162
 Sum of Mulliken charges =  -0.00000

 Dipole moment (field-independent basis, Debye):
    X=             -0.0000    Y=              0.0000    Z=             -2.0954  Tot=              2.0954
 Quadrupole moment (field-independent basis, Debye-Ang):
   XX=             -7.2038   YY=             -4.2868   ZZ=             -5.9897
   XY=              0.0000   XZ=              0.0000   YZ=             -0.0000

 Normal termination of Gaussian 16 at Fri Jun  7 15:43:07 2024.
